% Model:              negative index.PE and PM.mph
% Version:            COMSOL 4.4.0.248
% Date:               Jun 30 2014, 10:57
% Table:              Table 1 - Global Evaluation 1 (emw.S11)
% freq                                            S-parameter, 11 component (1)                     S-parameter, 21 component (1)
2.0E9                                             -0.9510997158476803+0.29641808404659403i          0.022916848661259103+0.07058520516940463i
2.1E9                                             -0.9461306348630898+0.31086525952949945i          0.02521004033078374+0.0738193912676309i
2.2E9                                             -0.9409163565423889+0.3252582734629741i           0.027613871403820243+0.07701029653326719i
2.3E9                                             -0.9354537288765519+0.3395966538884375i           0.030130382466353387+0.08015744592056723i
2.4E9                                             -0.9297420237755344+0.3538771969340388i           0.032759569105564+0.08325805889380648i
2.5E9                                             -0.9237800412990785+0.36809622276093856i          0.0355017322400355+0.08630891417128461i
2.6E9                                             -0.9175666136847602+0.3822515907548744i           0.03835713478662136+0.08930807767601324i
2.7E9                                             -0.9111006684720708+0.39634000207691655i          0.041325870342383254+0.09225260325019372i
2.8E9                                             -0.9043810879294975+0.4103584116278193i           0.044408011623146545+0.09513972409806182i
2.9E9                                             -0.8974056370493024+0.42430374615047944i          0.04760452580894558+0.09796656216302842i
3.0E9                                             -0.890171612776909+0.4381753334313844i            0.05091682426016696+0.10073221211884929i
3.1E9                                             -0.8826823280516676+0.4519666233393638i           0.05434082977073665+0.10343110451280209i
3.2E9                                             -0.8749315715203431+0.4656733602671985i           0.057880575701322184+0.10605897666027614i
3.3E9                                             -0.8669203903049028+0.4792943798223183i           0.06153399888271111+0.10861461745692493i
3.4E9                                             -0.858643678999356+0.49282733042257165i           0.06530414947917941+0.11109537840703759i
3.5E9                                             -0.8501038245254723+0.5062670259477823i           0.06918739935869186+0.11349665966591344i
3.6E9                                             -0.841296985556891+0.5196092817300458i            0.0731853792446766+0.11581421615402661i
3.7E9                                             -0.8322192578153277+0.5328531186227021i           0.0772998344299935+0.1180464748615105i
3.8E9                                             -0.8228716241348796+0.5459910483561963i           0.08152781112211975+0.12018665465330604i
3.9E9                                             -0.8132519571544229+0.5590211454248046i           0.08586920872528903+0.12223237694381033i
4.0E9                                             -0.8033539725436651+0.5719368160106226i           0.09032696944227858+0.12417694286119295i
4.1E9                                             -0.7931810009586479+0.5847427480782412i           0.09489655468278153+0.12602392808982532i
4.2E9                                             -0.782725364014225+0.5974221182004271i            0.09958096363461082+0.1277576728502854i
4.3E9                                             -0.7719888076365284+0.609977929895199i            0.10437643691462815+0.12938007632636458i
4.4E9                                             -0.7609648959892409+0.6224023011982406i           0.1092851201778482+0.13088301024934626i
4.5E9                                             -0.7496544940022627+0.6346980584265755i           0.11430367868204756+0.13226801074940234i
4.6E9                                             -0.7380497218999316+0.6468485444161451i           0.11943412401792151+0.13351919514852437i
4.7E9                                             -0.7261529774360046+0.6588570997806811i           0.12467126515727261+0.1346385461647574i
4.8E9                                             -0.713957855680157+0.670714849063363i             0.1300159249928328+0.1356167121124549i
4.9E9                                             -0.7014618808827129+0.6824180944300293i           0.13546571275821273+0.13644906846527935i
5.0E9                                             -0.688660692533856+0.6939651688448948i            0.14101975810868078+0.13713233601713973i
5.1E9                                             -0.6755494700306621+0.7053415149527225i           0.14667560097147214+0.13765229192024367i
5.2E9                                             -0.6621274969333746+0.7165470180374283i           0.15242844662280525+0.13800721649957612i
5.3E9                                             -0.6483889999647237+0.7275753654568974i           0.1582766046074144+0.13818946339305477i
5.4E9                                             -0.6343287239213211+0.7384180042840671i           0.1642169574274648+0.13818944679741882i
5.5E9                                             -0.6199428281977141+0.7490717386752133i           0.1702453039321351+0.13800218737513517i
5.6E9                                             -0.6052255921714049+0.7595263330482049i           0.17635726193093157+0.137616380160719i
5.7E9                                             -0.5901722320960103+0.7697778754746032i           0.18254773369147145+0.13702612200691314i
5.8E9                                             -0.5747767720224233+0.7798164096922341i           0.1888108190346716+0.13622007556093388i
5.9E9                                             -0.5590329466309272+0.7896366781596598i           0.19514046219040315+0.1351907946974948i
6.0E9                                             -0.542934435818094+0.7992300786273014i            0.2015290241433709+0.13392787155067576i
6.1E9                                             -0.5264737324302163+0.8085884404137389i           0.20796853526160192+0.13242101486163574i
6.2E9                                             -0.5096433829570267+0.8177035851934135i           0.21444950358636872+0.13065990416895304i
6.3E9                                             -0.49242503576309476+0.8265665644441956i          0.22096892165480428+0.12863113230216155i
6.4E9                                             -0.4748308714747166+0.8351710823352688i           0.22749939597685756+0.12633046685467073i
6.5E9                                             -0.45683896489897957+0.8435045461370826i          0.23403555321903963+0.1237408371814049i
6.6E9                                             -0.43842833835398315+0.8515531428575678i          0.24056869810746323+0.12084433741446088i
6.7E9                                             -0.41960283697080075+0.8593197174133893i          0.24707350692573116+0.11764314478052822i
6.8E9                                             -0.40034451344501937+0.8667831709077154i          0.2535303581579491+0.11411514038849391i
6.9E9                                             -0.38062458299370355+0.8739290617986354i          0.2599260487778416+0.11024071629092794i
7.0E9                                             -0.36044226818869546+0.8807596323859916i          0.2662289762066751+0.10602250618810065i
7.1E9                                             -0.33977409481993126+0.8872531860513395i          0.27241003335782243+0.10143896800717228i
7.2E9                                             -0.3185838700245064+0.8933890854843856i           0.2784434540507206+0.09646646162417331i
7.3E9                                             -0.29686148673192236+0.8991702077238334i          0.2842897837260961+0.0911099835761687i
7.4E9                                             -0.2745733498810186+0.9045688360357985i           0.28990349970183527+0.0853464363909793i
7.5E9                                             -0.2516745778246418+0.9095734352942093i           0.29524690423093214+0.07916402872607872i
7.6E9                                             -0.22814026841444293+0.9141569126584829i          0.30025074749516917+0.0725520987437563i
7.7E9                                             -0.20391269543838136+0.9183078013695033i          0.3048632625417958+0.06550369964640983i
7.8E9                                             -0.1789320379347619+0.9219966144785348i           0.3090094550974145+0.05800609970313941i
7.9E9                                             -0.15314579264215367+0.9251891557665683i          0.3125944545408174+0.0500632718532603i
8.0E9                                             -0.1264574462472522+0.9278557360013528i           0.3155259156139224+0.04166704431505617i
8.1E9                                             -0.09879344149945536+0.9299524173614137i          0.31768054150678443+0.03284065935946788i
8.2E9                                             -0.07002732465006284+0.9314260689673465i          0.31892323257038147+0.023595710330078647i
8.3E9                                             -0.04002153557391372+0.932203709442224i           0.3190835909439524+0.013964934098729679i
8.4E9                                             -0.00861010099920865+0.932195478077315i           0.31796261446194357+0.004004872646821463i
8.5E9                                             0.02441139319376987+0.9312743294696328i           0.31531822292806533-0.006197086882743653i
8.6E9                                             0.059288277805066444+0.9292851095708395i          0.3108710078613221-0.01651317136037198i
8.7E9                                             0.09632861650316227+0.9259980515937867i           0.30427144929455363-0.02675279808894728i
8.8E9                                             0.1359104860658088+0.9210878022154196i            0.29509596158778706-0.036631132484939405i
8.9E9                                             0.17848288804319287+0.914089767958028i            0.28284233507193973-0.045717648853175266i
9.0E9                                             0.22459600634091614+0.9043485632201144i           0.26691553310306526-0.05339159566613426i
9.1E9                                             0.2748756808584842+0.8908832723315868i            0.24663213291562064-0.0587048367276626i
9.2E9                                             0.3299792269043574+0.8722345960110266i            0.22126665649658167-0.06023076947093185i
9.3E9                                             0.3905920371390279+0.8461663527461291i            0.1900756717426009-0.055787330273196524i
9.4E9                                             0.4568109650002179+0.8095157970105292i            0.1528849345794773-0.042211112122649996i
9.5E9                                             0.5279695638505207+0.757498984537423i             0.1102932989820522-0.014771231315493117i
9.6E9                                             0.6006275998844738+0.6836493863045139i            0.06561801093134871+0.03297785228639631i
9.7E9                                             0.6669967586712481+0.5806276694749245i            0.026593160264470308+0.10834543849047899i
9.8E9                                             0.7107889174718642+0.44382491167011184i           0.009359327806554704+0.21594907438747393i
9.9E9                                             0.7085237097548266+0.27988618922678477i           0.03729002619945408+0.34915639819506844i
1.0E10                                            0.6398968709384742+0.11616209653752954i           0.13059319569192088+0.48066572949790043i
1.01E10                                           0.5101325122672653-0.004915021857081536i          0.2839863251007342+0.5680979156548658i
1.02E10                                           0.35615025194757954-0.05589625705569562i          0.4605167660696256+0.5840119471687307i
1.03E10                                           0.22010134031249437-0.04410519033741146i          0.6179719179682488+0.5356943144722688i
1.04E10                                           0.12243057304090935+0.002959491868111207i         0.7357923240449368+0.45061455559654706i
1.05E10                                           0.06242065696398446+0.06054161697243294i          0.8145578710671819+0.3535289220842637i
1.06E10                                           0.030833963543237853+0.11471746207622531i         0.8633563812262438+0.2583876065159347i
1.07E10                                           0.018018539591705254+0.15995868167210467i         0.8917059525772931+0.17077565604788278i
1.08E10                                           0.01678898185617505+0.19515804556439834i          0.9066535617210295+0.09186623802274396i
1.09E10                                           0.022296769165841477+0.22106512165739772i         0.9129271153684152+0.020982948329767496i
1.1E10                                            0.03142338106415372+0.2389626434524573i           0.9135139625103535-0.04305734658591438i
1.11E10                                           0.042231587569931575+0.25017133265957464i         0.9102292743518028-0.10148215127739482i
1.12E10                                           0.05351989041502947+0.2558987460910451i           0.9041788679622037-0.15539040301603324i
1.13E10                                           0.0644610340706498+0.2571013441819266i            0.896048370309614-0.2056002319918145i
1.14E10                                           0.07460633038848903+0.2546117768284381i           0.8862139720406994-0.25283344113900197i
1.15E10                                           0.08359080871446234+0.24909280439220122i          0.874915790374963-0.29757734371392797i
1.16E10                                           0.091240201769447+0.24110577604848432i            0.8622741668629333-0.3402565369611987i
1.17E10                                           0.0973726326190193+0.2311070702145967i            0.8483571003067427-0.3811239107264865i
1.18E10                                           0.10195665051019483+0.21948599803801355i          0.8331797831016208-0.42044093558889195i
1.19E10                                           0.1048829197548354+0.20659942459594663i           0.8167663543959534-0.4583051442506894i
1.2E10                                            0.10616592148868044+0.19271711474423203i          0.7990943800798015-0.494858446692192i
1.21E10                                           0.10574383523516082+0.17813169779244567i          0.7801711918957474-0.5301062560605532i
1.22E10                                           0.10368127903672847+0.1630590923780675i           0.7599947935790512-0.5641375423931002i
1.23E10                                           0.0999440918716326+0.14774107762354832i           0.7385630725832557-0.5968927875107604i
1.24E10                                           0.09460996692654+0.13234757056452598i             0.7158937518430355-0.6284171904612115i
1.25E10                                           0.08768153108224544+0.11709631141104938i          0.6920030787513678-0.6586180018249267i
1.26E10                                           0.07924197857541525+0.10211816152783798i          0.6669192464811055-0.6875187408092455i
1.27E10                                           0.06932873215365996+0.08761480041412659i          0.6406872862061641-0.7150049427865715i
1.28E10                                           0.058037300096785864+0.07368561929983604i         0.6133532230699781-0.7410916267938944i
1.29E10                                           0.04542834132754914+0.06051073495038175i          0.5849818961537864-0.765659819299315i
1.3E10                                            0.03160920778731365+0.04816319634746876i          0.5556380916381184-0.788723161697485i
1.31E10                                           0.016662566581887975+0.03680111055423845i         0.5254072179469418-0.8101674662756262i
1.32E10                                           7.02411326534438E-4+0.02647114665431921i          0.4943666882141157-0.8300123364371524i
1.33E10                                           -0.01616856881019767+0.01730797279812289i         0.4626215960154355-0.8481556071637029i
1.34E10                                           -0.0338371582585843+0.009326883114700863i         0.4302516696741129-0.8646329628165953i
1.35E10                                           -0.05217776894274001+0.0026533332613620053i       0.39739076486427394-0.8793442529933512i
1.36E10                                           -0.07108640623685628-0.002737861092473548i        0.3641086227658214-0.892354020484478i
1.37E10                                           -0.09042441669489056-0.006742186674547927i        0.3305528567473533-0.9035766286530267i
1.38E10                                           -0.11009699994652777-0.00940791977748963i         0.2967890355438443-0.9130925702501165i
1.39E10                                           -0.12995506542142105-0.010658016407831386i        0.26297436624693576-0.9208388295623118i
1.4E10                                            -0.1499213649830649-0.010558917190482589i         0.22916082667505822-0.9269081425633517i
1.41E10                                           -0.16984016756481154-0.009061181208208818i        0.19551183567088637-0.9312615520823462i
1.42E10                                           -0.18965385414037816-0.006245294797909106i        0.16206278534615157-0.934001410966906i
1.43E10                                           -0.20920653550844567-0.0020874433815268787i       0.12897711614828344-0.9351115713406372i
1.44E10                                           -0.22846065711620295+0.0033212041563345993i       0.09627258645697014-0.9347018301729154i
1.45E10                                           -0.2472662846740819+0.009982647225945144i         0.06410657457348591-0.9327755261611707i
1.46E10                                           -0.26560427552866267+0.017800675445025872i        0.03248066380665042-0.9294448411415016i
1.47E10                                           -0.28333178777986107+0.026753735707786355i        0.0015449906717125202-0.924736021016036i
1.48E10                                           -0.30046585697458505+0.036738298259692694i        -0.02873462803280225-0.9187651986196641i
1.49E10                                           -0.316851481117592+0.04774870721417162i           -0.05819355817346201-0.9115392570941042i
1.5E10                                            -0.33252312046276705+0.059661903125859284i        -0.08688232255748592-0.9031957753168355i
1.51E10                                           -0.34736124470390006+0.07243455079957405i         -0.11467407818307518-0.8937792765361124i
1.52E10                                           -0.3613813115184045+0.08598633047936587i          -0.14159418917954697-0.8833781619479308i
1.53E10                                           -0.3745650982467176+0.1002555447473882i           -0.16762939296323576-0.8720605678221318i
1.54E10                                           -0.38681896879116273+0.11515496866111388i         -0.19267897837636178-0.8599163438587012i
1.55E10                                           -0.3981784066189335+0.13063394975987344i          -0.2167878998896228-0.8470006930959347i
1.56E10                                           -0.408646066061156+0.14662404288919056i           -0.23996293303321029-0.8333888677063959i
1.57E10                                           -0.41815443999028135+0.16303954546335178i         -0.26213022196838426-0.8191674571839436i
1.58E10                                           -0.42674452821255515+0.17983562551153282i         -0.2833383374390914-0.8043854654563539i
1.59E10                                           -0.43443604181376705+0.19695743595390627i         -0.3036110588681889-0.7891031748111109i
1.6E10                                            -0.4411793352744386+0.2143189299545987i           -0.32289229846322903-0.7734066574445364i
1.61E10                                           -0.44702242435570205+0.23187531280897872i         -0.34123574637240506-0.7573455213301625i
1.62E10                                           -0.45197747618054274+0.24960622181421233i         -0.3586576131750201-0.7409406038671474i
1.63E10                                           -0.4560595291827681+0.26741877045091217i          -0.3751701316147319-0.7242902161190681i
1.64E10                                           -0.4592676235402362+0.28529446998899977i          -0.39077380257505673-0.7074112788158211i
1.65E10                                           -0.4616512704204672+0.30317388507472176i          -0.4055202998978939-0.6903692806354084i
1.66E10                                           -0.4631986750979383+0.32102676738831615i          -0.4193967490621575-0.6731923791270947i
1.67E10                                           -0.46396115860149945+0.3388041609989682i          -0.432456206765147-0.6559346053025704i
1.68E10                                           -0.463944907418195+0.35648867508425786i           -0.44470558104999575-0.6386122602625064i
1.69E10                                           -0.4631922508352214+0.3740402767426353i           -0.4561884372673182-0.6212695201533286i
1.7E10                                            -0.4617042264501838+0.39142508657427366i          -0.46690395466701223-0.6039387763439918i
1.71E10                                           -0.45952690367377486+0.40862216560786774i         -0.4769005788146589-0.5866444402558899i
1.72E10                                           -0.4566724155737701+0.4256095618873362i           -0.4861901957744489-0.5694079258003668i
1.73E10                                           -0.4531783526807563+0.44235602236474975i          -0.4948095687050816-0.5522629576512904i
1.74E10                                           -0.4490799246546875+0.45886821410668105i          -0.5027980635730103-0.5352052300738367i
1.75E10                                           -0.44435961656932776+0.47509479965276935i         -0.5101336024027673-0.5182817238932054i
1.76E10                                           -0.43907573134212985+0.49103156012909194i         -0.5168759199845736-0.5015010173307473i
1.77E10                                           -0.43325050742772797+0.5066827608174361i          -0.5230499622701472-0.4848598257796396i
1.78E10                                           -0.42690753603307396+0.5220069600652797i          -0.528675446831398-0.4683997229193997i
1.79E10                                           -0.42006657315947266+0.537023080337787i           -0.5337762434575529-0.4521024155429552i
1.8E10                                            -0.41274839737775004+0.5516960506948552i          -0.5383698183978196-0.4360025316313769i
1.81E10                                           -0.4049776307075677+0.5660328039431132i           -0.5424825899506738-0.4200940325172869i
1.82E10                                           -0.3967780365440383+0.5800247156411716i           -0.5461385976239805-0.4043866835794017i
1.83E10                                           -0.38817051874789266+0.5936570301279546i          -0.54935706109253-0.3888944681087014i
1.84E10                                           -0.3791710646050634+0.6069445665897432i           -0.5521569444551568-0.3736035002109966i
1.85E10                                           -0.36980182894630664+0.619854457601679i           -0.554556523294164-0.35854520709348436i
1.86E10                                           -0.36007853779044324+0.6324093728423252i          -0.556575222341263-0.34369821275702245i
1.87E10                                           -0.35002346878412693+0.6445896554849622i          -0.55823257521301-0.32908120337975205i
1.88E10                                           -0.33965000846623983+0.6564146764701323i          -0.5595458309191809-0.31467620090278453i
1.89E10                                           -0.3289798852602229+0.6678519893202016i           -0.5605318724020661-0.3005129488014969i
1.9E10                                            -0.31802394991160826+0.6789277754833961i          -0.5612056775465974-0.28656645806152536i
1.91E10                                           -0.30679718498517267+0.6896292935546185i          -0.5615813303587731-0.27284817605555106i
1.92E10                                           -0.295319666547042+0.6999550860722372i            -0.5616779913698695-0.25935853714095103i
1.93E10                                           -0.28359991061793227+0.7099213343503327i          -0.5615076824411183-0.24608254698747867i
1.94E10                                           -0.2716509082924863+0.7195020875913792i           -0.5610805672515592-0.23304082845076826i
1.95E10                                           -0.25948919810432824+0.7287179715062014i          -0.5604153877011739-0.22021465047002883i
1.96E10                                           -0.2471236831322644+0.7375655086270054i           -0.5595221626344863-0.2076053699049319i
1.97E10                                           -0.23456395293765467+0.7460471179461934i          -0.5584119728056043-0.19520851098384912i
1.98E10                                           -0.22182573152883564+0.7541538127197246i          -0.5570993108754942-0.18302899477842036i
1.99E10                                           -0.20891487977944004+0.7619011151973143i          -0.5555940845214817-0.1710518199713588i
2.0E10                                            -0.19584242081656125+0.7692776416309536i          -0.5539074651209129-0.15928195356197694i
2.01E10                                           -0.18261594830870603+0.7762924402958796i          -0.5520500399737691-0.1477088980774945i
2.02E10                                           -0.16924453633244854+0.7829410532464108i          -0.5500326612485226-0.1363311068091941i
2.03E10                                           -0.15573516064430146+0.7892262795562399i          -0.5478655522763225-0.12514131358927255i
2.04E10                                           -0.1420948771985055+0.7951460969231429i           -0.5455589400064701-0.1141344544845869i
2.05E10                                           -0.12833336403192383+0.8006978092626968i          -0.5431248442122906-0.10330515628188439i
2.06E10                                           -0.11444851366042515+0.8058897780030414i          -0.5405696975573009-0.09263923088616297i
2.07E10                                           -0.10044797100325713+0.8107022476810146i          -0.5379050657279354-0.08213766069915497i
2.08E10                                           -0.08633770128726431+0.8151463901992616i          -0.5351429255379967-0.07178270933204035i
2.09E10                                           -0.07211571666855714+0.8192090207588483i          -0.5322919621814466-0.06156543704253951i
2.1E10                                            -0.05778811008160753+0.822879801004745i           -0.5293653689108078-0.05147359183393439i
2.11E10                                           -0.043353246922458843+0.826155894054551i          -0.5263743040404788-0.04148682998462474i
2.12E10                                           -0.028809376385091637+0.8290201979361543i         -0.5233312443610383-0.03158601814207917i
2.13E10                                           -0.014153166070078263+0.8314440966297594i         -0.5202512778395602-0.021746196524443075i
2.14E10                                           6.179076665312742E-4+0.8334103714489761i          -0.51714861618189-0.011931559050630071i
2.15E10                                           0.015511792999231513+0.8348760266421643i          -0.5140399373772258-0.0020996913417617685i
2.16E10                                           0.03053660510235228+0.8357873453776561i           -0.51094335808258+0.00780924807123413i
2.17E10                                           0.045702063046309305+0.8360665649843263i          -0.5078778808322434+0.01787810799493472i
2.18E10                                           0.06101494759595546+0.8356190739059859i           -0.5048552296082802+0.028213347347373408i
2.19E10                                           0.07648734900502492+0.8342295216694328i           -0.5018928936630983+0.03901444117230776i
2.2E10                                            0.09205100490638894+0.8316690927029353i           -0.49895935571447686+0.05053069593132633i
2.21E10                                           0.10766228263807757+0.8275422891495001i           -0.49596948965256404+0.06316536581696075i
2.22E10                                           0.1230013389101229+0.8211412439688983i            -0.49264333672367544+0.07760692021597324i
2.23E10                                           0.1373189743349466+0.8114041328551085i            -0.48823172690593736+0.09492670753878961i
2.24E10                                           0.14841529308328513+0.7967458900478297i           -0.4805468190514506+0.11669084533206146i
2.25E10                                           0.15039806708377096+0.7763589395837418i           -0.4637440973864472+0.14368405276443152i
2.26E10                                           0.13196512486052203+0.7582144010204539i           -0.426625996155703+0.1679470884472204i
2.27E10                                           0.0976567930609976+0.771282303579569i             -0.37382564615087593+0.1607211980107416i
2.28E10                                           0.09229627587497559+0.8153722711356153i           -0.34987897127630146+0.12237338236238285i
2.29E10                                           0.11788695581663466+0.8471706408338614i           -0.3566142326111737+0.09594814830077443i
2.3E10                                            0.14833688239769846+0.8605679752393882i           -0.36809071753839306+0.08741794332262512i